LAMMPS (29 Aug 2024)
OMP_NUM_THREADS environment is not set. Defaulting to 1 thread. (src/comm.cpp:98)
  using 1 OpenMP thread(s) per MPI task
# Sequence matters* as the script is read top-2-bottom

#### Initialization ####
units lj
dimension 3
atom_style atomic
pair_style lj/cut 2.5
boundary p p p

#### System Definition ####


#### Simualtion Settings ####


#### Visualisation ####


#### Running Simulation ####
Total wall time: 0:00:00
