ITEM: TIMESTEP
0
ITEM: NUMBER OF ATOMS
690
ITEM: BOX BOUNDS ff ff ff
-4.0000000000000000e+01 4.0000000000000000e+01
-4.0000000000000000e+01 4.0000000000000000e+01
-4.0000000000000000e+01 4.0000000000000000e+01
ITEM: ATOMS id type xs ys zs
24 1 0.435471 0.494192 0.191827
1 1 0.439341 0.477234 0.195176
25 1 0.436251 0.488431 0.161679
2 1 0.441626 0.471889 0.165029
3 1 0.444381 0.466769 0.181778
5 1 0.455226 0.45317 0.185127
4 1 0.447584 0.461917 0.15163
6 1 0.459604 0.449345 0.15498
8 1 0.464307 0.445928 0.171728
9 1 0.479979 0.438381 0.175078
10 1 0.485583 0.436835 0.191827
11 1 0.491303 0.435797 0.161679
12 1 0.502907 0.435275 0.195176
13 1 0.508697 0.435797 0.165029
14 1 0.514417 0.436835 0.181778
16 1 0.530702 0.442946 0.185127
15 1 0.520021 0.438381 0.15163
17 1 0.535693 0.445928 0.15498
19 1 0.540396 0.449345 0.171728
20 1 0.552416 0.461917 0.175078
21 1 0.555619 0.466769 0.191827
27 1 0.562455 0.482764 0.195176
22 1 0.558374 0.471889 0.161679
30 1 0.563749 0.488431 0.165029
32 1 0.564529 0.494192 0.181778
44 1 0.497093 0.564725 0.171728
43 1 0.479979 0.561619 0.175078
42 1 0.474536 0.559576 0.191827
40 1 0.459604 0.550655 0.195176
41 1 0.469298 0.557054 0.161679
39 1 0.455226 0.54683 0.165029
38 1 0.451209 0.542628 0.181778
36 1 0.441626 0.528111 0.185127
37 1 0.447584 0.538083 0.15163
34 1 0.439341 0.522766 0.15498
26 1 0.437545 0.517236 0.171728
23 1 0.43521 0.5 0.175078
33 1 0.56479 0.5 0.15163
28 1 0.562455 0.517236 0.15498
55 1 0.560659 0.522766 0.171728
54 1 0.552416 0.538083 0.175078
53 1 0.548791 0.542628 0.191827
51 1 0.535693 0.554072 0.195176
52 1 0.544774 0.54683 0.161679
50 1 0.530702 0.557054 0.165029
49 1 0.525464 0.559576 0.181778
47 1 0.508697 0.564203 0.185127
48 1 0.520021 0.561619 0.15163
45 1 0.502907 0.564725 0.15498
31 1 0.563749 0.511569 0.185127
130 1 0.435471 0.494192 0.285619
81 1 0.436251 0.488431 0.255471
133 1 0.437545 0.482764 0.27222
112 1 0.444381 0.466769 0.275569
83 1 0.437545 0.482764 0.225324
56 1 0.439341 0.477234 0.242072
58 1 0.447584 0.461917 0.245422
114 1 0.451209 0.457372 0.262171
116 1 0.464307 0.445928 0.26552
117 1 0.469298 0.442946 0.282269
118 1 0.485583 0.436835 0.285619
57 1 0.441626 0.471889 0.211925
59 1 0.451209 0.457372 0.215275
60 1 0.455226 0.45317 0.232023
61 1 0.469298 0.442946 0.235373
63 1 0.474536 0.440424 0.252121
65 1 0.491303 0.435797 0.255471
120 1 0.497093 0.435275 0.27222
7 1 0.459604 0.449345 0.201876
62 1 0.474536 0.440424 0.205226
64 1 0.479979 0.438381 0.221974
66 1 0.497093 0.435275 0.225324
113 1 0.447584 0.461917 0.292318
115 1 0.459604 0.449345 0.295668
67 1 0.502907 0.435275 0.242072
69 1 0.520021 0.438381 0.245422
123 1 0.525464 0.440424 0.262171
125 1 0.540396 0.449345 0.26552
126 1 0.544774 0.45317 0.282269
127 1 0.555619 0.466769 0.285619
68 1 0.508697 0.435797 0.211925
70 1 0.525464 0.440424 0.215275
71 1 0.530702 0.442946 0.232023
72 1 0.544774 0.45317 0.235373
74 1 0.548791 0.457372 0.252121
76 1 0.558374 0.471889 0.255471
129 1 0.560659 0.477234 0.27222
137 1 0.564529 0.494192 0.275569
18 1 0.535693 0.445928 0.201876
73 1 0.548791 0.457372 0.205226
75 1 0.552416 0.461917 0.221974
77 1 0.560659 0.477234 0.225324
84 1 0.562455 0.482764 0.242072
85 1 0.563749 0.488431 0.211925
122 1 0.520021 0.438381 0.292318
124 1 0.535693 0.445928 0.295668
149 1 0.497093 0.564725 0.26552
148 1 0.491303 0.564203 0.282269
147 1 0.474536 0.559576 0.285619
99 1 0.491303 0.564203 0.235373
98 1 0.485583 0.563165 0.252121
95 1 0.469298 0.557054 0.255471
145 1 0.464307 0.554072 0.27222
143 1 0.451209 0.542628 0.275569
97 1 0.485583 0.563165 0.205226
96 1 0.479979 0.561619 0.221974
94 1 0.464307 0.554072 0.225324
93 1 0.459604 0.550655 0.242072
91 1 0.447584 0.538083 0.245422
141 1 0.444381 0.533231 0.262171
134 1 0.437545 0.517236 0.26552
132 1 0.436251 0.511569 0.282269
92 1 0.455226 0.54683 0.211925
90 1 0.444381 0.533231 0.215275
89 1 0.441626 0.528111 0.232023
82 1 0.436251 0.511569 0.235373
80 1 0.435471 0.505808 0.252121
35 1 0.439341 0.522766 0.201876
79 1 0.435471 0.505808 0.205226
78 1 0.43521 0.5 0.221974
142 1 0.447584 0.538083 0.292318
140 1 0.439341 0.522766 0.295668
138 1 0.564529 0.505808 0.262171
159 1 0.560659 0.522766 0.26552
158 1 0.558374 0.528111 0.282269
157 1 0.548791 0.542628 0.285619
86 1 0.563749 0.511569 0.232023
110 1 0.558374 0.528111 0.235373
109 1 0.555619 0.533231 0.252121
106 1 0.544774 0.54683 0.255471
155 1 0.540396 0.550655 0.27222
153 1 0.525464 0.559576 0.275569
29 1 0.562455 0.517236 0.201876
108 1 0.555619 0.533231 0.205226
107 1 0.552416 0.538083 0.221974
105 1 0.540396 0.550655 0.225324
104 1 0.535693 0.554072 0.242072
102 1 0.520021 0.561619 0.245422
151 1 0.514417 0.563165 0.262171
103 1 0.530702 0.557054 0.211925
101 1 0.514417 0.563165 0.215275
100 1 0.508697 0.564203 0.232023
46 1 0.502907 0.564725 0.201876
88 1 0.56479 0.5 0.245422
87 1 0.564529 0.505808 0.215275
139 1 0.56479 0.5 0.292318
135 1 0.562455 0.517236 0.295668
152 1 0.520021 0.561619 0.292318
150 1 0.502907 0.564725 0.295668
237 1 0.436251 0.488431 0.396159
239 1 0.437545 0.482764 0.366012
214 1 0.439341 0.477234 0.38276
216 1 0.447584 0.461917 0.38611
184 1 0.435471 0.494192 0.332514
160 1 0.439341 0.477234 0.335864
161 1 0.441626 0.471889 0.352613
163 1 0.451209 0.457372 0.355962
218 1 0.455226 0.45317 0.372711
220 1 0.469298 0.442946 0.376061
221 1 0.474536 0.440424 0.392809
222 1 0.491303 0.435797 0.396159
131 1 0.436251 0.488431 0.302367
111 1 0.441626 0.471889 0.305717
162 1 0.444381 0.466769 0.322465
164 1 0.455226 0.45317 0.325815
165 1 0.459604 0.449345 0.342564
167 1 0.474536 0.440424 0.345913
169 1 0.479979 0.438381 0.362662
223 1 0.497093 0.435275 0.366012
166 1 0.464307 0.445928 0.312416
168 1 0.479979 0.438381 0.315766
170 1 0.485583 0.436835 0.332514
119 1 0.491303 0.435797 0.302367
225 1 0.502907 0.435275 0.38276
227 1 0.520021 0.438381 0.38611
171 1 0.502907 0.435275 0.335864
172 1 0.508697 0.435797 0.352613
174 1 0.525464 0.440424 0.355962
229 1 0.530702 0.442946 0.372711
231 1 0.544774 0.45317 0.376061
232 1 0.548791 0.457372 0.392809
233 1 0.558374 0.471889 0.396159
121 1 0.508697 0.435797 0.305717
173 1 0.514417 0.436835 0.322465
175 1 0.530702 0.442946 0.325815
176 1 0.535693 0.445928 0.342564
178 1 0.548791 0.457372 0.345913
180 1 0.552416 0.461917 0.362662
234 1 0.560659 0.477234 0.366012
242 1 0.562455 0.482764 0.38276
177 1 0.540396 0.449345 0.312416
179 1 0.552416 0.461917 0.315766
181 1 0.555619 0.466769 0.332514
187 1 0.562455 0.482764 0.335864
188 1 0.563749 0.488431 0.352613
128 1 0.558374 0.471889 0.302367
136 1 0.563749 0.488431 0.305717
190 1 0.564529 0.494192 0.322465
255 1 0.491303 0.564203 0.376061
254 1 0.485583 0.563165 0.392809
253 1 0.469298 0.557054 0.396159
201 1 0.485583 0.563165 0.345913
200 1 0.479979 0.561619 0.362662
251 1 0.464307 0.554072 0.366012
250 1 0.459604 0.550655 0.38276
248 1 0.447584 0.538083 0.38611
202 1 0.497093 0.564725 0.312416
199 1 0.479979 0.561619 0.315766
198 1 0.474536 0.559576 0.332514
197 1 0.459604 0.550655 0.335864
196 1 0.455226 0.54683 0.352613
194 1 0.444381 0.533231 0.355962
246 1 0.441626 0.528111 0.372711
238 1 0.436251 0.511569 0.376061
236 1 0.435471 0.505808 0.392809
146 1 0.469298 0.557054 0.302367
144 1 0.455226 0.54683 0.305717
195 1 0.451209 0.542628 0.322465
193 1 0.441626 0.528111 0.325815
192 1 0.439341 0.522766 0.342564
185 1 0.435471 0.505808 0.345913
183 1 0.43521 0.5 0.362662
186 1 0.437545 0.517236 0.312416
182 1 0.43521 0.5 0.315766
243 1 0.563749 0.511569 0.372711
265 1 0.558374 0.528111 0.376061
264 1 0.555619 0.533231 0.392809
263 1 0.544774 0.54683 0.396159
212 1 0.555619 0.533231 0.345913
211 1 0.552416 0.538083 0.362662
261 1 0.540396 0.550655 0.366012
259 1 0.520021 0.561619 0.38611
213 1 0.560659 0.522766 0.312416
210 1 0.552416 0.538083 0.315766
209 1 0.548791 0.542628 0.332514
208 1 0.535693 0.554072 0.335864
207 1 0.530702 0.557054 0.352613
205 1 0.514417 0.563165 0.355962
257 1 0.508697 0.564203 0.372711
156 1 0.544774 0.54683 0.302367
154 1 0.530702 0.557054 0.305717
206 1 0.525464 0.559576 0.322465
204 1 0.508697 0.564203 0.325815
203 1 0.502907 0.564725 0.342564
191 1 0.564529 0.505808 0.355962
189 1 0.563749 0.511569 0.325815
288 1 0.435471 0.494192 0.426306
240 1 0.437545 0.482764 0.412908
215 1 0.444381 0.466769 0.416257
217 1 0.451209 0.457372 0.402858
219 1 0.464307 0.445928 0.406208
273 1 0.469298 0.442946 0.422957
275 1 0.485583 0.436835 0.426306
224 1 0.497093 0.435275 0.412908
340 1 0.435471 0.494192 0.473202
316 1 0.439341 0.477234 0.476552
318 1 0.441626 0.471889 0.493301
320 1 0.451209 0.457372 0.49665
289 1 0.436251 0.488431 0.443055
267 1 0.441626 0.471889 0.446405
268 1 0.444381 0.466769 0.463153
270 1 0.455226 0.45317 0.466503
321 1 0.459604 0.449345 0.483251
323 1 0.474536 0.440424 0.486601
269 1 0.447584 0.461917 0.433006
271 1 0.459604 0.449345 0.436355
272 1 0.464307 0.445928 0.453104
274 1 0.479979 0.438381 0.456454
325 1 0.485583 0.436835 0.473202
276 1 0.491303 0.435797 0.443055
226 1 0.514417 0.436835 0.416257
228 1 0.525464 0.440424 0.402858
230 1 0.540396 0.449345 0.406208
283 1 0.544774 0.45317 0.422957
285 1 0.555619 0.466769 0.426306
235 1 0.560659 0.477234 0.412908
244 1 0.564529 0.494192 0.416257
327 1 0.502907 0.435275 0.476552
329 1 0.508697 0.435797 0.493301
331 1 0.525464 0.440424 0.49665
277 1 0.508697 0.435797 0.446405
278 1 0.514417 0.436835 0.463153
280 1 0.530702 0.442946 0.466503
333 1 0.535693 0.445928 0.483251
335 1 0.548791 0.457372 0.486601
279 1 0.520021 0.438381 0.433006
281 1 0.535693 0.445928 0.436355
282 1 0.540396 0.449345 0.453104
284 1 0.552416 0.461917 0.456454
337 1 0.555619 0.466769 0.473202
344 1 0.562455 0.482764 0.476552
347 1 0.563749 0.488431 0.493301
286 1 0.558374 0.471889 0.443055
293 1 0.563749 0.488431 0.446405
295 1 0.564529 0.494192 0.463153
256 1 0.497093 0.564725 0.406208
304 1 0.491303 0.564203 0.422957
302 1 0.474536 0.559576 0.426306
252 1 0.464307 0.554072 0.412908
249 1 0.451209 0.542628 0.416257
247 1 0.444381 0.533231 0.402858
241 1 0.437545 0.517236 0.406208
290 1 0.436251 0.511569 0.422957
361 1 0.485583 0.563165 0.486601
305 1 0.497093 0.564725 0.453104
303 1 0.479979 0.561619 0.456454
359 1 0.474536 0.559576 0.473202
356 1 0.459604 0.550655 0.476552
355 1 0.455226 0.54683 0.493301
353 1 0.444381 0.533231 0.49665
301 1 0.469298 0.557054 0.443055
300 1 0.455226 0.54683 0.446405
299 1 0.451209 0.542628 0.463153
298 1 0.441626 0.528111 0.466503
351 1 0.439341 0.522766 0.483251
341 1 0.435471 0.505808 0.486601
297 1 0.439341 0.522766 0.436355
291 1 0.437545 0.517236 0.453104
287 1 0.43521 0.5 0.456454
245 1 0.564529 0.505808 0.402858
266 1 0.560659 0.522766 0.406208
314 1 0.558374 0.528111 0.422957
312 1 0.548791 0.542628 0.426306
262 1 0.540396 0.550655 0.412908
260 1 0.525464 0.559576 0.416257
258 1 0.514417 0.563165 0.402858
346 1 0.562455 0.517236 0.483251
373 1 0.555619 0.533231 0.486601
296 1 0.56479 0.5 0.433006
292 1 0.562455 0.517236 0.436355
315 1 0.560659 0.522766 0.453104
313 1 0.552416 0.538083 0.456454
371 1 0.548791 0.542628 0.473202
368 1 0.535693 0.554072 0.476552
367 1 0.530702 0.557054 0.493301
365 1 0.514417 0.563165 0.49665
311 1 0.544774 0.54683 0.443055
310 1 0.530702 0.557054 0.446405
309 1 0.525464 0.559576 0.463153
307 1 0.508697 0.564203 0.466503
363 1 0.502907 0.564725 0.483251
308 1 0.520021 0.561619 0.433006
306 1 0.502907 0.564725 0.436355
349 1 0.564529 0.505808 0.49665
294 1 0.563749 0.511569 0.466503
394 1 0.435471 0.494192 0.566994
396 1 0.436251 0.488431 0.536847
398 1 0.437545 0.482764 0.553595
374 1 0.444381 0.466769 0.556945
343 1 0.437545 0.482764 0.506699
317 1 0.439341 0.477234 0.523448
319 1 0.447584 0.461917 0.526798
376 1 0.451209 0.457372 0.543546
378 1 0.464307 0.445928 0.546896
379 1 0.469298 0.442946 0.563644
381 1 0.485583 0.436835 0.566994
322 1 0.469298 0.442946 0.516749
380 1 0.474536 0.440424 0.533497
382 1 0.491303 0.435797 0.536847
383 1 0.497093 0.435275 0.553595
324 1 0.479979 0.438381 0.50335
326 1 0.497093 0.435275 0.506699
447 1 0.436251 0.488431 0.583743
424 1 0.441626 0.471889 0.587092
375 1 0.447584 0.461917 0.573694
377 1 0.459604 0.449345 0.577043
429 1 0.464307 0.445928 0.593792
431 1 0.479979 0.438381 0.597142
433 1 0.491303 0.435797 0.583743
384 1 0.514417 0.436835 0.556945
328 1 0.502907 0.435275 0.523448
330 1 0.520021 0.438381 0.526798
386 1 0.525464 0.440424 0.543546
388 1 0.540396 0.449345 0.546896
389 1 0.544774 0.45317 0.563644
391 1 0.555619 0.466769 0.566994
332 1 0.530702 0.442946 0.513399
334 1 0.544774 0.45317 0.516749
390 1 0.548791 0.457372 0.533497
392 1 0.558374 0.471889 0.536847
393 1 0.560659 0.477234 0.553595
401 1 0.564529 0.494192 0.556945
336 1 0.552416 0.461917 0.50335
338 1 0.560659 0.477234 0.506699
345 1 0.562455 0.482764 0.523448
435 1 0.508697 0.435797 0.587092
385 1 0.520021 0.438381 0.573694
387 1 0.535693 0.445928 0.577043
440 1 0.540396 0.449345 0.593792
442 1 0.552416 0.461917 0.597142
444 1 0.558374 0.471889 0.583743
451 1 0.563749 0.488431 0.587092
412 1 0.497093 0.564725 0.546896
411 1 0.491303 0.564203 0.563644
362 1 0.491303 0.564203 0.516749
410 1 0.485583 0.563165 0.533497
409 1 0.469298 0.557054 0.536847
408 1 0.464307 0.554072 0.553595
407 1 0.451209 0.542628 0.556945
360 1 0.479979 0.561619 0.50335
358 1 0.464307 0.554072 0.506699
357 1 0.459604 0.550655 0.523448
354 1 0.447584 0.538083 0.526798
405 1 0.444381 0.533231 0.543546
399 1 0.437545 0.517236 0.546896
397 1 0.436251 0.511569 0.563644
352 1 0.441626 0.528111 0.513399
342 1 0.436251 0.511569 0.516749
395 1 0.435471 0.505808 0.533497
339 1 0.43521 0.5 0.50335
465 1 0.497093 0.564725 0.593792
463 1 0.479979 0.561619 0.597142
461 1 0.469298 0.557054 0.583743
458 1 0.455226 0.54683 0.587092
406 1 0.447584 0.538083 0.573694
404 1 0.439341 0.522766 0.577043
448 1 0.437545 0.517236 0.593792
402 1 0.564529 0.505808 0.543546
422 1 0.560659 0.522766 0.546896
421 1 0.558374 0.528111 0.563644
419 1 0.548791 0.542628 0.566994
348 1 0.563749 0.511569 0.513399
420 1 0.555619 0.533231 0.533497
418 1 0.544774 0.54683 0.536847
417 1 0.540396 0.550655 0.553595
416 1 0.525464 0.559576 0.556945
372 1 0.552416 0.538083 0.50335
370 1 0.540396 0.550655 0.506699
369 1 0.535693 0.554072 0.523448
366 1 0.520021 0.561619 0.526798
414 1 0.514417 0.563165 0.543546
364 1 0.508697 0.564203 0.513399
350 1 0.56479 0.5 0.526798
403 1 0.56479 0.5 0.573694
400 1 0.562455 0.517236 0.577043
476 1 0.560659 0.522766 0.593792
474 1 0.552416 0.538083 0.597142
472 1 0.544774 0.54683 0.583743
469 1 0.530702 0.557054 0.587092
415 1 0.520021 0.561619 0.573694
413 1 0.502907 0.564725 0.577043
500 1 0.436251 0.488431 0.677535
555 1 0.437545 0.482764 0.694283
532 1 0.444381 0.466769 0.697633
502 1 0.437545 0.482764 0.647387
477 1 0.439341 0.477234 0.664136
478 1 0.447584 0.461917 0.667486
480 1 0.451209 0.457372 0.684234
482 1 0.464307 0.445928 0.687584
445 1 0.435471 0.494192 0.61389
423 1 0.439341 0.477234 0.61724
425 1 0.441626 0.471889 0.633988
479 1 0.451209 0.457372 0.637338
481 1 0.455226 0.45317 0.654087
483 1 0.469298 0.442946 0.657436
484 1 0.474536 0.440424 0.674185
486 1 0.491303 0.435797 0.677535
540 1 0.497093 0.435275 0.694283
426 1 0.444381 0.466769 0.603841
427 1 0.455226 0.45317 0.607191
428 1 0.459604 0.449345 0.623939
430 1 0.474536 0.440424 0.627289
485 1 0.479979 0.438381 0.644038
487 1 0.497093 0.435275 0.647387
432 1 0.485583 0.436835 0.61389
542 1 0.514417 0.436835 0.697633
488 1 0.502907 0.435275 0.664136
489 1 0.520021 0.438381 0.667486
491 1 0.525464 0.440424 0.684234
492 1 0.540396 0.449345 0.687584
434 1 0.502907 0.435275 0.61724
436 1 0.508697 0.435797 0.633988
490 1 0.525464 0.440424 0.637338
493 1 0.544774 0.45317 0.657436
494 1 0.548791 0.457372 0.674185
496 1 0.558374 0.471889 0.677535
550 1 0.560659 0.477234 0.694283
559 1 0.564529 0.494192 0.697633
437 1 0.514417 0.436835 0.603841
438 1 0.530702 0.442946 0.607191
439 1 0.535693 0.445928 0.623939
441 1 0.548791 0.457372 0.627289
495 1 0.552416 0.461917 0.644038
497 1 0.560659 0.477234 0.647387
504 1 0.562455 0.482764 0.664136
443 1 0.555619 0.466769 0.61389
449 1 0.562455 0.482764 0.61724
452 1 0.563749 0.488431 0.633988
454 1 0.564529 0.494192 0.603841
519 1 0.497093 0.564725 0.687584
518 1 0.491303 0.564203 0.657436
517 1 0.485583 0.563165 0.674185
515 1 0.469298 0.557054 0.677535
565 1 0.464307 0.554072 0.694283
563 1 0.451209 0.542628 0.697633
464 1 0.485583 0.563165 0.627289
516 1 0.479979 0.561619 0.644038
514 1 0.464307 0.554072 0.647387
513 1 0.459604 0.550655 0.664136
512 1 0.447584 0.538083 0.667486
511 1 0.444381 0.533231 0.684234
503 1 0.437545 0.517236 0.687584
462 1 0.474536 0.559576 0.61389
460 1 0.459604 0.550655 0.61724
459 1 0.455226 0.54683 0.633988
510 1 0.444381 0.533231 0.637338
509 1 0.441626 0.528111 0.654087
501 1 0.436251 0.511569 0.657436
499 1 0.435471 0.505808 0.674185
457 1 0.451209 0.542628 0.603841
456 1 0.441626 0.528111 0.607191
455 1 0.439341 0.522766 0.623939
446 1 0.435471 0.505808 0.627289
498 1 0.43521 0.5 0.644038
507 1 0.564529 0.505808 0.684234
530 1 0.560659 0.522766 0.687584
505 1 0.563749 0.511569 0.654087
529 1 0.558374 0.528111 0.657436
528 1 0.555619 0.533231 0.674185
526 1 0.544774 0.54683 0.677535
575 1 0.540396 0.550655 0.694283
573 1 0.525464 0.559576 0.697633
450 1 0.562455 0.517236 0.623939
475 1 0.555619 0.533231 0.627289
527 1 0.552416 0.538083 0.644038
525 1 0.540396 0.550655 0.647387
524 1 0.535693 0.554072 0.664136
523 1 0.520021 0.561619 0.667486
522 1 0.514417 0.563165 0.684234
473 1 0.548791 0.542628 0.61389
471 1 0.535693 0.554072 0.61724
470 1 0.530702 0.557054 0.633988
521 1 0.514417 0.563165 0.637338
520 1 0.508697 0.564203 0.654087
468 1 0.525464 0.559576 0.603841
467 1 0.508697 0.564203 0.607191
466 1 0.502907 0.564725 0.623939
508 1 0.56479 0.5 0.667486
506 1 0.564529 0.505808 0.637338
453 1 0.563749 0.511569 0.607191
552 1 0.435471 0.494192 0.707682
536 1 0.469298 0.442946 0.704332
538 1 0.485583 0.436835 0.707682
606 1 0.437545 0.482764 0.788075
604 1 0.435471 0.494192 0.754578
581 1 0.439341 0.477234 0.757928
582 1 0.441626 0.471889 0.774676
584 1 0.451209 0.457372 0.778026
586 1 0.455226 0.45317 0.794775
641 1 0.469298 0.442946 0.798124
553 1 0.436251 0.488431 0.724431
531 1 0.441626 0.471889 0.72778
583 1 0.444381 0.466769 0.744529
585 1 0.455226 0.45317 0.747879
587 1 0.459604 0.449345 0.764627
588 1 0.474536 0.440424 0.767977
589 1 0.479979 0.438381 0.784725
591 1 0.497093 0.435275 0.788075
533 1 0.447584 0.461917 0.714381
534 1 0.459604 0.449345 0.717731
535 1 0.464307 0.445928 0.73448
537 1 0.479979 0.438381 0.737829
590 1 0.485583 0.436835 0.754578
539 1 0.491303 0.435797 0.724431
612 1 0.564529 0.494192 0.744529
558 1 0.563749 0.488431 0.72778
549 1 0.558374 0.471889 0.724431
609 1 0.563749 0.488431 0.774676
607 1 0.562455 0.482764 0.757928
601 1 0.555619 0.466769 0.754578
547 1 0.552416 0.461917 0.737829
546 1 0.544774 0.45317 0.704332
548 1 0.555619 0.466769 0.707682
545 1 0.540396 0.449345 0.73448
592 1 0.502907 0.435275 0.757928
593 1 0.508697 0.435797 0.774676
595 1 0.525464 0.440424 0.778026
597 1 0.530702 0.442946 0.794775
652 1 0.544774 0.45317 0.798124
541 1 0.508697 0.435797 0.72778
594 1 0.514417 0.436835 0.744529
596 1 0.530702 0.442946 0.747879
598 1 0.535693 0.445928 0.764627
599 1 0.548791 0.457372 0.767977
600 1 0.552416 0.461917 0.784725
602 1 0.560659 0.477234 0.788075
543 1 0.520021 0.438381 0.714381
544 1 0.535693 0.445928 0.717731
569 1 0.491303 0.564203 0.704332
567 1 0.474536 0.559576 0.707682
554 1 0.436251 0.511569 0.704332
677 1 0.491303 0.564203 0.798124
624 1 0.485583 0.563165 0.767977
623 1 0.479979 0.561619 0.784725
621 1 0.464307 0.554072 0.788075
570 1 0.497093 0.564725 0.73448
568 1 0.479979 0.561619 0.737829
622 1 0.474536 0.559576 0.754578
620 1 0.459604 0.550655 0.757928
619 1 0.455226 0.54683 0.774676
617 1 0.444381 0.533231 0.778026
616 1 0.441626 0.528111 0.794775
661 1 0.436251 0.511569 0.798124
566 1 0.469298 0.557054 0.724431
564 1 0.455226 0.54683 0.72778
618 1 0.451209 0.542628 0.744529
615 1 0.441626 0.528111 0.747879
614 1 0.439341 0.522766 0.764627
605 1 0.435471 0.505808 0.767977
603 1 0.43521 0.5 0.784725
562 1 0.447584 0.538083 0.714381
561 1 0.439341 0.522766 0.717731
556 1 0.437545 0.517236 0.73448
551 1 0.43521 0.5 0.737829
610 1 0.563749 0.511569 0.747879
613 1 0.564529 0.505808 0.778026
579 1 0.558374 0.528111 0.704332
577 1 0.548791 0.542628 0.707682
611 1 0.563749 0.511569 0.794775
688 1 0.558374 0.528111 0.798124
608 1 0.562455 0.517236 0.764627
635 1 0.555619 0.533231 0.767977
634 1 0.552416 0.538083 0.784725
632 1 0.540396 0.550655 0.788075
560 1 0.56479 0.5 0.714381
557 1 0.562455 0.517236 0.717731
580 1 0.560659 0.522766 0.73448
578 1 0.552416 0.538083 0.737829
633 1 0.548791 0.542628 0.754578
631 1 0.535693 0.554072 0.757928
630 1 0.530702 0.557054 0.774676
628 1 0.514417 0.563165 0.778026
627 1 0.508697 0.564203 0.794775
576 1 0.544774 0.54683 0.724431
574 1 0.530702 0.557054 0.72778
629 1 0.525464 0.559576 0.744529
626 1 0.508697 0.564203 0.747879
625 1 0.502907 0.564725 0.764627
572 1 0.520021 0.561619 0.714381
571 1 0.502907 0.564725 0.717731
658 1 0.435471 0.494192 0.84837
660 1 0.436251 0.488431 0.818222
663 1 0.437545 0.482764 0.834971
637 1 0.444381 0.466769 0.838321
636 1 0.439341 0.477234 0.804824
638 1 0.447584 0.461917 0.808173
639 1 0.451209 0.457372 0.824922
640 1 0.464307 0.445928 0.828272
642 1 0.469298 0.442946 0.84502
644 1 0.485583 0.436835 0.84837
643 1 0.474536 0.440424 0.814873
645 1 0.491303 0.435797 0.818222
646 1 0.497093 0.435275 0.834971
648 1 0.514417 0.436835 0.838321
647 1 0.502907 0.435275 0.804824
649 1 0.520021 0.438381 0.808173
650 1 0.525464 0.440424 0.824922
651 1 0.540396 0.449345 0.828272
653 1 0.544774 0.45317 0.84502
655 1 0.555619 0.466769 0.84837
654 1 0.548791 0.457372 0.814873
656 1 0.558374 0.471889 0.818222
657 1 0.560659 0.477234 0.834971
666 1 0.564529 0.494192 0.838321
665 1 0.562455 0.482764 0.804824
679 1 0.497093 0.564725 0.828272
678 1 0.491303 0.564203 0.84502
675 1 0.474536 0.559576 0.84837
676 1 0.485583 0.563165 0.814873
674 1 0.469298 0.557054 0.818222
673 1 0.464307 0.554072 0.834971
671 1 0.451209 0.542628 0.838321
672 1 0.459604 0.550655 0.804824
670 1 0.447584 0.538083 0.808173
669 1 0.444381 0.533231 0.824922
664 1 0.437545 0.517236 0.828272
662 1 0.436251 0.511569 0.84502
659 1 0.435471 0.505808 0.814873
667 1 0.564529 0.505808 0.824922
690 1 0.560659 0.522766 0.828272
689 1 0.558374 0.528111 0.84502
686 1 0.548791 0.542628 0.84837
687 1 0.555619 0.533231 0.814873
685 1 0.544774 0.54683 0.818222
684 1 0.540396 0.550655 0.834971
682 1 0.525464 0.559576 0.838321
683 1 0.535693 0.554072 0.804824
681 1 0.520021 0.561619 0.808173
680 1 0.514417 0.563165 0.824922
668 1 0.56479 0.5 0.808173
ITEM: TIMESTEP
1000
ITEM: NUMBER OF ATOMS
690
ITEM: BOX BOUNDS ff ff ff
-4.0000000000000000e+01 4.0000000000000000e+01
-4.0000000000000000e+01 4.0000000000000000e+01
-4.0000000000000000e+01 4.0000000000000000e+01
ITEM: ATOMS id type xs ys zs
24 1 0.431127 0.491702 0.190221
1 1 0.434998 0.473898 0.193849
25 1 0.433445 0.487151 0.16072
2 1 0.437369 0.469558 0.163515
3 1 0.44116 0.464197 0.180511
5 1 0.455095 0.452798 0.184041
4 1 0.447584 0.461917 0.15163
6 1 0.459604 0.449345 0.15498
8 1 0.46395 0.44441 0.170823
9 1 0.479633 0.435468 0.173822
10 1 0.485095 0.432109 0.191024
11 1 0.492261 0.43596 0.161368
12 1 0.502998 0.431297 0.194872
13 1 0.509339 0.433012 0.164134
14 1 0.515376 0.432247 0.181377
16 1 0.531696 0.440171 0.185766
15 1 0.520021 0.438381 0.15163
17 1 0.535693 0.445928 0.15498
19 1 0.541221 0.447635 0.171926
20 1 0.552942 0.461368 0.175113
21 1 0.556349 0.466787 0.19216
27 1 0.56253 0.483688 0.195313
22 1 0.559438 0.472522 0.161714
30 1 0.56632 0.488657 0.165226
32 1 0.567404 0.495095 0.181792
44 1 0.496373 0.567057 0.17146
43 1 0.478449 0.56459 0.173946
42 1 0.473208 0.561631 0.1917
40 1 0.457463 0.551886 0.195142
41 1 0.467085 0.558166 0.161253
39 1 0.451684 0.549232 0.164816
38 1 0.448301 0.544262 0.181763
36 1 0.439024 0.528325 0.184738
37 1 0.447584 0.538083 0.15163
34 1 0.439341 0.522766 0.15498
26 1 0.434995 0.516851 0.170669
23 1 0.431393 0.499069 0.173639
33 1 0.56479 0.5 0.15163
28 1 0.562455 0.517236 0.15498
55 1 0.563427 0.525146 0.170822
54 1 0.554375 0.540612 0.174011
53 1 0.552461 0.546387 0.190822
51 1 0.538704 0.558496 0.194216
52 1 0.543959 0.547401 0.161239
50 1 0.531729 0.560049 0.164187
49 1 0.526443 0.56336 0.181229
47 1 0.508825 0.567484 0.184893
48 1 0.520021 0.561619 0.15163
45 1 0.502907 0.564725 0.15498
31 1 0.56764 0.513636 0.184609
130 1 0.431561 0.490339 0.284244
81 1 0.432005 0.48532 0.254199
133 1 0.433619 0.478657 0.270858
112 1 0.439789 0.461791 0.273824
83 1 0.434603 0.479471 0.224068
56 1 0.43813 0.474476 0.240866
58 1 0.444365 0.457434 0.243598
114 1 0.446695 0.451784 0.26056
116 1 0.459453 0.439363 0.264103
117 1 0.464288 0.437037 0.281013
118 1 0.479096 0.42749 0.285101
57 1 0.438387 0.468402 0.210852
59 1 0.450745 0.455416 0.213826
60 1 0.452834 0.44837 0.230365
61 1 0.466155 0.436166 0.234089
63 1 0.471689 0.436267 0.251222
65 1 0.488153 0.428375 0.25498
120 1 0.490746 0.423812 0.271961
7 1 0.45829 0.446704 0.200439
62 1 0.473161 0.435645 0.204143
64 1 0.477886 0.431473 0.220983
66 1 0.495615 0.43049 0.225135
113 1 0.441634 0.456046 0.291073
115 1 0.453295 0.442542 0.294283
67 1 0.501134 0.432263 0.242509
69 1 0.519114 0.435555 0.245303
123 1 0.524014 0.440979 0.261585
125 1 0.536714 0.452071 0.26624
126 1 0.535905 0.459843 0.281834
127 1 0.548138 0.472243 0.285944
68 1 0.508365 0.432366 0.212155
70 1 0.524923 0.438411 0.215803
71 1 0.529208 0.442426 0.232548
72 1 0.543006 0.453827 0.235769
74 1 0.543524 0.460976 0.25231
76 1 0.554906 0.474808 0.255866
129 1 0.557305 0.480767 0.272999
137 1 0.565675 0.496724 0.275575
18 1 0.535311 0.446133 0.202832
73 1 0.549666 0.456667 0.205906
75 1 0.552168 0.462106 0.222757
77 1 0.560108 0.478282 0.225815
84 1 0.560276 0.485923 0.242039
85 1 0.564344 0.489516 0.212284
122 1 0.509818 0.44906 0.294327
124 1 0.527644 0.451644 0.29531
149 1 0.498152 0.564991 0.265207
148 1 0.491833 0.562382 0.281791
147 1 0.474595 0.557156 0.285807
99 1 0.491693 0.563537 0.236051
98 1 0.485621 0.562244 0.252791
95 1 0.468552 0.554968 0.255839
145 1 0.463637 0.551987 0.272517
143 1 0.44975 0.539876 0.275029
97 1 0.485011 0.564421 0.205609
96 1 0.480403 0.56045 0.222466
94 1 0.46528 0.550822 0.225577
93 1 0.458791 0.5491 0.242268
91 1 0.445651 0.53625 0.245104
141 1 0.441884 0.531044 0.261436
134 1 0.433811 0.51516 0.264646
132 1 0.432302 0.508394 0.280978
92 1 0.454653 0.545871 0.212078
90 1 0.443707 0.531725 0.214644
89 1 0.441786 0.524912 0.231417
82 1 0.433299 0.509408 0.234174
80 1 0.431324 0.503613 0.250976
35 1 0.436604 0.521838 0.201157
79 1 0.432094 0.503443 0.203891
78 1 0.434221 0.497542 0.220897
142 1 0.446733 0.534205 0.291614
140 1 0.438914 0.518131 0.294505
138 1 0.567603 0.509004 0.262191
159 1 0.565657 0.526725 0.26494
158 1 0.564707 0.532682 0.281953
157 1 0.55484 0.547732 0.28511
86 1 0.566633 0.514357 0.231018
110 1 0.56163 0.531762 0.234009
109 1 0.560461 0.537575 0.251287
106 1 0.549344 0.551341 0.254704
155 1 0.54449 0.554621 0.272136
153 1 0.527512 0.560626 0.27548
29 1 0.565996 0.519392 0.2009
108 1 0.559504 0.535934 0.204234
107 1 0.556275 0.542702 0.220568
105 1 0.543662 0.555175 0.223741
104 1 0.539069 0.557636 0.241465
102 1 0.521731 0.562649 0.24519
151 1 0.516327 0.564739 0.261806
103 1 0.53258 0.561342 0.211178
101 1 0.515007 0.565199 0.214968
100 1 0.509254 0.562216 0.232059
46 1 0.502898 0.56646 0.201532
88 1 0.567081 0.503015 0.24497
87 1 0.564286 0.507906 0.21463
139 1 0.566223 0.503523 0.292464
135 1 0.568055 0.521425 0.295399
152 1 0.522042 0.561458 0.292121
150 1 0.504054 0.560151 0.294785
237 1 0.430604 0.482752 0.395847
239 1 0.432343 0.478201 0.365587
214 1 0.433766 0.471681 0.381994
216 1 0.445214 0.457639 0.385419
184 1 0.431747 0.490625 0.331388
160 1 0.438971 0.47455 0.334953
161 1 0.438446 0.468334 0.352458
163 1 0.449528 0.454289 0.355063
218 1 0.45071 0.447496 0.371604
220 1 0.464427 0.435961 0.374985
221 1 0.470042 0.433021 0.391572
222 1 0.487574 0.430601 0.395074
131 1 0.432063 0.48391 0.300953
111 1 0.436148 0.466482 0.304664
162 1 0.439916 0.462217 0.321802
164 1 0.45133 0.448426 0.325231
165 1 0.454886 0.443086 0.341974
167 1 0.469354 0.431954 0.345197
169 1 0.475477 0.430429 0.362156
223 1 0.493664 0.429473 0.365191
166 1 0.457879 0.43857 0.31146
168 1 0.474455 0.430899 0.314688
170 1 0.481206 0.429712 0.331457
119 1 0.48581 0.429626 0.301565
225 1 0.499243 0.431614 0.38185
227 1 0.517411 0.433 0.385034
171 1 0.49902 0.430292 0.334902
172 1 0.505176 0.430994 0.351612
174 1 0.522034 0.43814 0.355053
229 1 0.527999 0.439323 0.37209
231 1 0.541613 0.451082 0.37531
232 1 0.548148 0.45163 0.391802
233 1 0.560779 0.464216 0.395317
121 1 0.502542 0.436396 0.304851
173 1 0.509554 0.435899 0.321582
175 1 0.523768 0.446641 0.325323
176 1 0.53049 0.446813 0.341495
178 1 0.541966 0.460237 0.345787
180 1 0.549416 0.46052 0.361821
234 1 0.561954 0.472903 0.365211
242 1 0.568537 0.473101 0.381732
177 1 0.533397 0.454012 0.312238
179 1 0.542692 0.468524 0.316586
181 1 0.549899 0.469826 0.332659
187 1 0.558174 0.486018 0.336691
188 1 0.562669 0.487573 0.354634
128 1 0.548971 0.478808 0.302728
136 1 0.56121 0.492381 0.306224
190 1 0.563177 0.49728 0.323512
255 1 0.491456 0.562501 0.375133
254 1 0.484641 0.562269 0.391878
253 1 0.47077 0.551019 0.395285
201 1 0.486238 0.560037 0.344849
200 1 0.480225 0.558272 0.361807
251 1 0.465167 0.5485 0.365453
250 1 0.459525 0.546476 0.382369
248 1 0.447696 0.532487 0.385881
202 1 0.498837 0.561109 0.311606
199 1 0.48116 0.556762 0.315177
198 1 0.476352 0.552224 0.331822
197 1 0.459916 0.545823 0.335827
196 1 0.454632 0.542936 0.352469
194 1 0.442323 0.529773 0.35592
246 1 0.440331 0.52374 0.372425
238 1 0.432794 0.50753 0.376019
236 1 0.431685 0.500933 0.392905
146 1 0.470218 0.551167 0.30215
144 1 0.454403 0.542854 0.305078
195 1 0.452552 0.536545 0.322014
193 1 0.439091 0.524712 0.325314
192 1 0.436836 0.519221 0.342251